2
Atoms. Timestep: 4
Cl 0 0 0.786483
Cl 0 0 -0.786483
