2
Atoms. Timestep: 2
Cl 0 0 1.72002
Cl 0 0 -1.72002
