2
Atoms. Timestep: 2
Cl 0 0 1.57009
Cl 0 0 -1.57009
