2
Atoms. Timestep: 1
Cl 0 0 2.02
Cl 0 0 -2.02
