2
Atoms. Timestep: 2
Cl 0 0 1.87
Cl 0 0 -1.87
