2
Atoms. Timestep: 4
Cl 0 0 0.926931
Cl 0 0 -0.926931
