2
Atoms. Timestep: 4
Cl 0 0 0.879314
Cl 0 0 -0.879314
