2
Atoms. Timestep: 2
Cl 0 0 1.27076
Cl 0 0 -1.27076
