2
Atoms. Timestep: 3
Cl 0 0 1.22106
Cl 0 0 -1.22106
