2
Atoms. Timestep: 2
Cl 0 0 1.42027
Cl 0 0 -1.42027
