2
Atoms. Timestep: 2
Cl 0 0 1.47019
Cl 0 0 -1.47019
