2
Atoms. Timestep: 2
Cl 0 0 1.37039
Cl 0 0 -1.37039
