2
Atoms. Timestep: 4
Cl 0 0 0.832436
Cl 0 0 -0.832436
