2
Atoms. Timestep: 500
Cl 0 0 1.34947
Cl 0 0 -1.34947
