2
Atoms. Timestep: 2
Cl 0 0 1.82001
Cl 0 0 -1.82001
