2
Atoms. Timestep: 5
Cl 40 40 40.7417
Cl 40 40 39.2583
