2
Atoms. Timestep: 1
Cl 0 0 1.97
Cl 0 0 -1.97
