2
Atoms. Timestep: 3
Cl 0 0 1.12202
Cl 0 0 -1.12202
