2
Atoms. Timestep: 2
Cl 0 0 1.77001
Cl 0 0 -1.77001
