2
Atoms. Timestep: 3
Cl 0 0 1.0316
Cl 0 0 -1.0316
