2
Atoms. Timestep: 1
Cl 0 0 2.07
Cl 0 0 -2.07
