2
Atoms. Timestep: 2
Cl 0 0 1.32054
Cl 0 0 -1.32054
