2
Atoms. Timestep: 2
Cl 0 0 1.62006
Cl 0 0 -1.62006
