2
Atoms. Timestep: 3
Cl 0 0 1.07277
Cl 0 0 -1.07277
