2
Atoms. Timestep: 3
Cl 0 0 1.17147
Cl 0 0 -1.17147
