2
Atoms. Timestep: 2
Cl 0 0 1.52013
Cl 0 0 -1.52013
