2
Atoms. Timestep: 4
Cl 0 0 1.67004
Cl 0 0 -1.67004
