2
Atoms. Timestep: 3
Cl 0 0 1.02378
Cl 0 0 -1.02378
