Cl2_174
2 atoms
1 atom types

-100.000000 100.000000 xlo xhi
-100.000000 100.000000 ylo yhi
-100.870040 100.870040 zlo zhi

Masses

1 35.450000

Atoms

1 1 0.000000 0.000000 0.000000 0.870040
2 1 0.000000 0.000000 0.000000 -0.870040
