Cl2_374
2 atoms
1 atom types

-100.000000 100.000000 xlo xhi
-100.000000 100.000000 ylo yhi
-101.870080 101.870080 zlo zhi

Masses

1 35.450000

Atoms

1 1 0.000000 0.000000 0.000000 1.870080
2 1 0.000000 0.000000 0.000000 -1.870080
