Cl2_Opt
2 atoms
1 atom types

-100.000000 100.000000 xlo xhi
-100.000000 100.000000 ylo yhi
-101.028020 101.028020 zlo zhi

Masses

1 35.450000

Atoms

1 1 0.000000 0.000000 0.000000 1.028020
2 1 0.000000 0.000000 0.000000 -1.028020
