Cl2_234
2 atoms
1 atom types

-100.000000 100.000000 xlo xhi
-100.000000 100.000000 ylo yhi
-101.170050 101.170050 zlo zhi

Masses

1 35.450000

Atoms

1 1 0.000000 0.000000 0.000000 1.170050
2 1 0.000000 0.000000 0.000000 -1.170050
