Cl2_144
2 atoms
1 atom types

-60.000000 140.000000 xlo xhi
-60.000000 140.000000 ylo yhi
-60.720000 140.720000 zlo zhi

Masses

1 35.450000

Atoms

1 1 0.000000 40.000000 40.000000 40.720000
2 1 0.000000 40.000000 40.000000 39.280000
