Cl2_414
2 atoms
1 atom types

-100.000000 100.000000 xlo xhi
-100.000000 100.000000 ylo yhi
-102.070090 102.070090 zlo zhi

Masses

1 35.450000

Atoms

1 1 0.000000 0.000000 0.000000 2.070090
2 1 0.000000 0.000000 0.000000 -2.070090
