Cl2_154
2 atoms
1 atom types

-100.000000 100.000000 xlo xhi
-100.000000 100.000000 ylo yhi
-100.770030 100.770030 zlo zhi

Masses

1 35.450000

Atoms

1 1 0.000000 0.000000 0.000000 0.770030
2 1 0.000000 0.000000 0.000000 -0.770030
